; Production MD — 1 ns (short smoke-test variant of md.mdp)
integrator              = md
dt                      = 0.002
nsteps                  = 500000

; Output — coordinates every 10 ps
nstxout                 = 0
nstvout                 = 0
nstfout                 = 0
nstenergy               = 5000
nstlog                  = 5000
nstxout-compressed      = 5000
compressed-x-grps       = System

; Neighbor searching
cutoff-scheme           = Verlet
nstlist                 = 10
ns_type                 = grid
pbc                     = xyz

; Electrostatics and VdW
coulombtype             = PME
rcoulomb                = 1.0
vdwtype                 = Cut-off
rvdw                    = 1.0
DispCorr                = EnerPres

; Bonds
constraints             = h-bonds
constraint-algorithm    = LINCS
lincs-iter              = 1
lincs-order             = 4

; Temperature coupling
tcoupl                  = V-rescale
tc-grps                 = Protein Non-Protein
tau_t                   = 0.1     0.1
ref_t                   = 300     300

; Pressure coupling
pcoupl                  = Parrinello-Rahman
pcoupltype              = isotropic
tau_p                   = 2.0
ref_p                   = 1.0
compressibility         = 4.5e-5

; Continue from NPT — no position restraints, no velocity regen
gen_vel                 = no
continuation            = yes
